;;
;; Generated by CHARMM-GUI (http://www.charmm-gui.org) v1.7
;;
;; psf2itp_mol.py
;;
;; Correspondance:
;; jul316@lehigh.edu or wonpil@lehigh.edu
;;
;; GROMACS topology file for NDB
;;


[ moleculetype ]
; name	nrexcl
NDB	     3

[ atoms ]
; nr	type	resnr	residu	atom	cgnr	charge	mass
     1     BG201     1     NDB    B1     1     0.7682 10.8110   ; qtot 0.768
     2    CG2R61     1     NDB    C1     2    -0.1253 12.0110   ; qtot 0.643
     3    CG2R61     1     NDB    C2     3    -0.1880 12.0110   ; qtot 0.455
     4    CG2R61     1     NDB    C3     4    -0.0113 12.0110   ; qtot 0.444
     5    CG2R61     1     NDB    C4     5    -0.1880 12.0110   ; qtot 0.256
     6    CG2R61     1     NDB    C5     6    -0.1253 12.0110   ; qtot 0.130
     7    CG2R61     1     NDB    C6     7     0.0088 12.0110   ; qtot 0.139
     8      HGP5     1     NDB    H1     8     0.1163  1.0080   ; qtot 0.256
     9     CG324     1     NDB    C7     9    -0.1029 12.0110   ; qtot 0.153
    10     NG3P0     1     NDB    N1    10     0.1097 14.0070   ; qtot 0.262
    11      HGP5     1     NDB    H2    11     0.1036  1.0080   ; qtot 0.366
    12     CG324     1     NDB    C8    12    -0.0759 12.0110   ; qtot 0.290
    13     CG321     1     NDB    C9    13    -0.1194 12.0110   ; qtot 0.171
    14     OG2D1     1     NDB    O1    14    -0.4795 15.9994   ; qtot -0.309
    15     OG2D1     1     NDB    O2    15    -0.4795 15.9994   ; qtot -0.788
    16     OG2D1     1     NDB    O3    16    -0.4795 15.9994   ; qtot -1.268
    17     OG2D1     1     NDB    O4    17    -0.4795 15.9994   ; qtot -1.747
    18     CG2O1     1     NDB   C10    18     0.4345 12.0110   ; qtot -1.313
    19     NG2S0     1     NDB    N2    19    -0.0571 14.0070   ; qtot -1.369
    20     CG2O1     1     NDB   C11    20     0.4345 12.0110   ; qtot -0.935
    21     CG2O1     1     NDB   C12    21     0.4345 12.0110   ; qtot -0.501
    22     NG2S0     1     NDB    N3    22    -0.0571 14.0070   ; qtot -0.558
    23     CG2O1     1     NDB   C13    23     0.4345 12.0110   ; qtot -0.123
    24    CG2R61     1     NDB   C14    24    -0.0351 12.0110   ; qtot -0.158
    25    CG2R61     1     NDB   C15    25    -0.0853 12.0110   ; qtot -0.244
    26    CG2R61     1     NDB   C16    26    -0.0853 12.0110   ; qtot -0.329
    27    CG2R61     1     NDB   C17    27    -0.0351 12.0110   ; qtot -0.364
    28    CG2R61     1     NDB   C18    28    -0.0079 12.0110   ; qtot -0.372
    29    CG2R61     1     NDB   C19    29    -0.0079 12.0110   ; qtot -0.380
    30    CG2R61     1     NDB   C20    30    -0.0351 12.0110   ; qtot -0.415
    31    CG2R61     1     NDB   C21    31    -0.0853 12.0110   ; qtot -0.500
    32    CG2R61     1     NDB   C22    32    -0.0853 12.0110   ; qtot -0.585
    33    CG2R61     1     NDB   C23    33    -0.0351 12.0110   ; qtot -0.620
    34     OG311     1     NDB    O5    34    -0.7635 15.9994   ; qtot -1.384
    35      HGP1     1     NDB    H3    35     0.4647  1.0080   ; qtot -0.919
    36     OG311     1     NDB    O6    36    -0.7635 15.9994   ; qtot -1.683
    37      HGP1     1     NDB    H4    37     0.4647  1.0080   ; qtot -1.218
    38     CG321     1     NDB   C24    38    -0.1194 12.0110   ; qtot -1.337
    39      HGA2     1     NDB    H5    39     0.1177  1.0080   ; qtot -1.220
    40     CG324     1     NDB   C25    40    -0.0759 12.0110   ; qtot -1.296
    41     NG3P0     1     NDB    N4    41     0.1097 14.0070   ; qtot -1.186
    42     CG334     1     NDB   C26    42    -0.0826 12.0110   ; qtot -1.268
    43     CG324     1     NDB   C27    43    -0.1029 12.0110   ; qtot -1.371
    44    CG2R61     1     NDB   C28    44     0.0088 12.0110   ; qtot -1.362
    45    CG2R61     1     NDB   C29    45    -0.1253 12.0110   ; qtot -1.488
    46    CG2R61     1     NDB   C30    46    -0.1880 12.0110   ; qtot -1.676
    47    CG2R61     1     NDB   C31    47    -0.0113 12.0110   ; qtot -1.687
    48    CG2R61     1     NDB   C32    48    -0.1880 12.0110   ; qtot -1.875
    49    CG2R61     1     NDB   C33    49    -0.1253 12.0110   ; qtot -2.000
    50     BG201     1     NDB    B2    50     0.7682 10.8110   ; qtot -1.232
    51     OG311     1     NDB    O7    51    -0.7635 15.9994   ; qtot -1.996
    52     OG311     1     NDB    O8    52    -0.7635 15.9994   ; qtot -2.759
    53      HGP1     1     NDB    H6    53     0.4647  1.0080   ; qtot -2.294
    54      HGP1     1     NDB    H7    54     0.4647  1.0080   ; qtot -1.830
    55     HGR61     1     NDB    H8    55     0.1730  1.0080   ; qtot -1.657
    56     HGR61     1     NDB    H9    56     0.1302  1.0080   ; qtot -1.526
    57     HGR61     1     NDB   H10    57     0.1730  1.0080   ; qtot -1.353
    58     HGR61     1     NDB   H11    58     0.1302  1.0080   ; qtot -1.223
    59     CG334     1     NDB   C34    59    -0.0826 12.0110   ; qtot -1.306
    60      HGP5     1     NDB   H12    60     0.1163  1.0080   ; qtot -1.189
    61      HGP5     1     NDB   H13    61     0.1163  1.0080   ; qtot -1.073
    62      HGP5     1     NDB   H14    62     0.0971  1.0080   ; qtot -0.976
    63      HGP5     1     NDB   H15    63     0.0971  1.0080   ; qtot -0.879
    64      HGP5     1     NDB   H16    64     0.0971  1.0080   ; qtot -0.782
    65      HGP5     1     NDB   H17    65     0.0971  1.0080   ; qtot -0.685
    66      HGP5     1     NDB   H18    66     0.0971  1.0080   ; qtot -0.588
    67      HGP5     1     NDB   H19    67     0.0971  1.0080   ; qtot -0.491
    68      HGP5     1     NDB   H20    68     0.1036  1.0080   ; qtot -0.387
    69      HGP5     1     NDB   H21    69     0.1036  1.0080   ; qtot -0.284
    70      HGA2     1     NDB   H22    70     0.1177  1.0080   ; qtot -0.166
    71     HGR61     1     NDB   H23    71     0.1719  1.0080   ; qtot 0.006
    72     HGR61     1     NDB   H24    72     0.1719  1.0080   ; qtot 0.178
    73     HGR61     1     NDB   H25    73     0.1719  1.0080   ; qtot 0.349
    74     HGR61     1     NDB   H26    74     0.1719  1.0080   ; qtot 0.521
    75      HGA2     1     NDB   H27    75     0.1177  1.0080   ; qtot 0.639
    76      HGA2     1     NDB   H28    76     0.1177  1.0080   ; qtot 0.756
    77     CG334     1     NDB   C35    77    -0.0826 12.0110   ; qtot 0.674
    78     CG334     1     NDB   C36    78    -0.0826 12.0110   ; qtot 0.591
    79      HGP5     1     NDB   H29    79     0.0971  1.0080   ; qtot 0.688
    80      HGP5     1     NDB   H30    80     0.0971  1.0080   ; qtot 0.785
    81      HGP5     1     NDB   H31    81     0.0971  1.0080   ; qtot 0.883
    82      HGP5     1     NDB   H32    82     0.0971  1.0080   ; qtot 0.980
    83      HGP5     1     NDB   H33    83     0.0971  1.0080   ; qtot 1.077
    84      HGP5     1     NDB   H34    84     0.1163  1.0080   ; qtot 1.193
    85      HGP5     1     NDB   H35    85     0.1036  1.0080   ; qtot 1.297
    86     HGR61     1     NDB   H36    86     0.1730  1.0080   ; qtot 1.470
    87      HGP5     1     NDB   H37    87     0.0971  1.0080   ; qtot 1.567
    88     HGR61     1     NDB   H38    88     0.1302  1.0080   ; qtot 1.697
    89     HGR61     1     NDB   H39    89     0.1302  1.0080   ; qtot 1.827
    90     HGR61     1     NDB   H40    90     0.1730  1.0080   ; qtot 2.000

[ bonds ]
; ai	aj	funct	b0	Kb
    1     4     1
    1    34     1
    1    36     1
    2     3     1
    2     7     1
    2    88     1
    3     4     1
    3    86     1
    4     5     1
    5     6     1
    5    90     1
    6     7     1
    6    89     1
    7     9     1
    8     9     1
    9    10     1
    9    84     1
   10    12     1
   10    77     1
   10    78     1
   11    12     1
   12    13     1
   12    85     1
   13    22     1
   13    75     1
   13    76     1
   14    20     1
   15    18     1
   16    23     1
   17    21     1
   18    19     1
   18    33     1
   19    20     1
   19    38     1
   20    24     1
   21    22     1
   21    27     1
   22    23     1
   23    30     1
   24    25     1
   24    28     1
   25    26     1
   25    74     1
   26    27     1
   26    73     1
   27    29     1
   28    29     1
   28    33     1
   29    30     1
   30    31     1
   31    32     1
   31    72     1
   32    33     1
   32    71     1
   34    35     1
   36    37     1
   38    39     1
   38    40     1
   38    70     1
   40    41     1
   40    68     1
   40    69     1
   41    42     1
   41    43     1
   41    59     1
   42    65     1
   42    66     1
   42    67     1
   43    44     1
   43    60     1
   43    61     1
   44    45     1
   44    49     1
   45    46     1
   45    58     1
   46    47     1
   46    57     1
   47    48     1
   47    50     1
   48    49     1
   48    55     1
   49    56     1
   50    51     1
   50    52     1
   51    54     1
   52    53     1
   59    62     1
   59    63     1
   59    64     1
   77    79     1
   77    80     1
   77    87     1
   78    81     1
   78    82     1
   78    83     1

[ pairs ]
; ai	aj	funct	c6	c12
    1     2     1 
    1     6     1 
    1    86     1 
    1    90     1 
    2     5     1 
    2     8     1 
    2    10     1 
    2    84     1 
    2    89     1 
    3     6     1 
    3     9     1 
    3    34     1 
    3    36     1 
    3    90     1 
    4     7     1 
    4    35     1 
    4    37     1 
    4    88     1 
    4    89     1 
    5     9     1 
    5    34     1 
    5    36     1 
    5    86     1 
    6     8     1 
    6    10     1 
    6    84     1 
    6    88     1 
    7    12     1 
    7    77     1 
    7    78     1 
    7    86     1 
    7    90     1 
    8    12     1 
    8    77     1 
    8    78     1 
    9    11     1 
    9    13     1 
    9    79     1 
    9    80     1 
    9    81     1 
    9    82     1 
    9    83     1 
    9    85     1 
    9    87     1 
    9    88     1 
    9    89     1 
   10    22     1 
   10    75     1 
   10    76     1 
   11    22     1 
   11    75     1 
   11    76     1 
   11    77     1 
   11    78     1 
   12    21     1 
   12    23     1 
   12    79     1 
   12    80     1 
   12    81     1 
   12    82     1 
   12    83     1 
   12    84     1 
   12    87     1 
   13    16     1 
   13    17     1 
   13    27     1 
   13    30     1 
   13    77     1 
   13    78     1 
   14    18     1 
   14    25     1 
   14    28     1 
   14    38     1 
   15    20     1 
   15    28     1 
   15    32     1 
   15    38     1 
   16    21     1 
   16    29     1 
   16    31     1 
   17    23     1 
   17    26     1 
   17    29     1 
   18    24     1 
   18    29     1 
   18    31     1 
   18    39     1 
   18    40     1 
   18    70     1 
   18    71     1 
   19    25     1 
   19    28     1 
   19    32     1 
   19    41     1 
   19    68     1 
   19    69     1 
   20    26     1 
   20    29     1 
   20    33     1 
   20    39     1 
   20    40     1 
   20    70     1 
   20    74     1 
   21    25     1 
   21    28     1 
   21    30     1 
   21    73     1 
   21    75     1 
   21    76     1 
   22    26     1 
   22    29     1 
   22    31     1 
   22    85     1 
   23    27     1 
   23    28     1 
   23    32     1 
   23    72     1 
   23    75     1 
   23    76     1 
   24    27     1 
   24    30     1 
   24    32     1 
   24    38     1 
   24    73     1 
   25    29     1 
   25    33     1 
   26    28     1 
   26    30     1 
   27    31     1 
   27    33     1 
   27    74     1 
   28    31     1 
   28    71     1 
   28    74     1 
   29    32     1 
   29    72     1 
   29    73     1 
   30    33     1 
   30    71     1 
   33    38     1 
   33    72     1 
   34    37     1 
   35    36     1 
   38    42     1 
   38    43     1 
   38    59     1 
   39    41     1 
   39    68     1 
   39    69     1 
   40    44     1 
   40    60     1 
   40    61     1 
   40    62     1 
   40    63     1 
   40    64     1 
   40    65     1 
   40    66     1 
   40    67     1 
   41    45     1 
   41    49     1 
   41    70     1 
   42    44     1 
   42    60     1 
   42    61     1 
   42    62     1 
   42    63     1 
   42    64     1 
   42    68     1 
   42    69     1 
   43    46     1 
   43    48     1 
   43    56     1 
   43    58     1 
   43    62     1 
   43    63     1 
   43    64     1 
   43    65     1 
   43    66     1 
   43    67     1 
   43    68     1 
   43    69     1 
   44    47     1 
   44    55     1 
   44    57     1 
   44    59     1 
   45    48     1 
   45    50     1 
   45    56     1 
   45    60     1 
   45    61     1 
   46    49     1 
   46    51     1 
   46    52     1 
   46    55     1 
   47    53     1 
   47    54     1 
   47    56     1 
   47    58     1 
   48    51     1 
   48    52     1 
   48    57     1 
   49    50     1 
   49    58     1 
   49    60     1 
   49    61     1 
   50    55     1 
   50    57     1 
   51    53     1 
   52    54     1 
   55    56     1 
   57    58     1 
   59    60     1 
   59    61     1 
   59    65     1 
   59    66     1 
   59    67     1 
   59    68     1 
   59    69     1 
   68    70     1 
   69    70     1 
   71    72     1 
   73    74     1 
   75    85     1 
   76    85     1 
   77    81     1 
   77    82     1 
   77    83     1 
   77    84     1 
   77    85     1 
   78    79     1 
   78    80     1 
   78    84     1 
   78    85     1 
   78    87     1 
   86    88     1 
   89    90     1 

[ angles ] 
; ai	aj	ak	funct	th0	cth	S0	Kub
    4     1    34     5
    4     1    36     5
   34     1    36     5
    3     2     7     5
    3     2    88     5
    7     2    88     5
    2     3     4     5
    2     3    86     5
    4     3    86     5
    1     4     3     5
    1     4     5     5
    3     4     5     5
    4     5     6     5
    4     5    90     5
    6     5    90     5
    5     6     7     5
    5     6    89     5
    7     6    89     5
    2     7     6     5
    2     7     9     5
    6     7     9     5
    7     9     8     5
    7     9    10     5
    7     9    84     5
    8     9    10     5
    8     9    84     5
   10     9    84     5
    9    10    12     5
    9    10    77     5
    9    10    78     5
   12    10    77     5
   12    10    78     5
   77    10    78     5
   10    12    11     5
   10    12    13     5
   10    12    85     5
   11    12    13     5
   11    12    85     5
   13    12    85     5
   12    13    22     5
   12    13    75     5
   12    13    76     5
   22    13    75     5
   22    13    76     5
   75    13    76     5
   15    18    19     5
   15    18    33     5
   19    18    33     5
   18    19    20     5
   18    19    38     5
   20    19    38     5
   14    20    19     5
   14    20    24     5
   19    20    24     5
   17    21    22     5
   17    21    27     5
   22    21    27     5
   13    22    21     5
   13    22    23     5
   21    22    23     5
   16    23    22     5
   16    23    30     5
   22    23    30     5
   20    24    25     5
   20    24    28     5
   25    24    28     5
   24    25    26     5
   24    25    74     5
   26    25    74     5
   25    26    27     5
   25    26    73     5
   27    26    73     5
   21    27    26     5
   21    27    29     5
   26    27    29     5
   24    28    29     5
   24    28    33     5
   29    28    33     5
   27    29    28     5
   27    29    30     5
   28    29    30     5
   23    30    29     5
   23    30    31     5
   29    30    31     5
   30    31    32     5
   30    31    72     5
   32    31    72     5
   31    32    33     5
   31    32    71     5
   33    32    71     5
   18    33    28     5
   18    33    32     5
   28    33    32     5
    1    34    35     5
    1    36    37     5
   19    38    39     5
   19    38    40     5
   19    38    70     5
   39    38    40     5
   39    38    70     5
   40    38    70     5
   38    40    41     5
   38    40    68     5
   38    40    69     5
   41    40    68     5
   41    40    69     5
   68    40    69     5
   40    41    42     5
   40    41    43     5
   40    41    59     5
   42    41    43     5
   42    41    59     5
   43    41    59     5
   41    42    65     5
   41    42    66     5
   41    42    67     5
   65    42    66     5
   65    42    67     5
   66    42    67     5
   41    43    44     5
   41    43    60     5
   41    43    61     5
   44    43    60     5
   44    43    61     5
   60    43    61     5
   43    44    45     5
   43    44    49     5
   45    44    49     5
   44    45    46     5
   44    45    58     5
   46    45    58     5
   45    46    47     5
   45    46    57     5
   47    46    57     5
   46    47    48     5
   46    47    50     5
   48    47    50     5
   47    48    49     5
   47    48    55     5
   49    48    55     5
   44    49    48     5
   44    49    56     5
   48    49    56     5
   47    50    51     5
   47    50    52     5
   51    50    52     5
   50    51    54     5
   50    52    53     5
   41    59    62     5
   41    59    63     5
   41    59    64     5
   62    59    63     5
   62    59    64     5
   63    59    64     5
   10    77    79     5
   10    77    80     5
   10    77    87     5
   79    77    80     5
   79    77    87     5
   80    77    87     5
   10    78    81     5
   10    78    82     5
   10    78    83     5
   81    78    82     5
   81    78    83     5
   82    78    83     5

[ dihedrals ]
; ai	aj	ak	al	funct	phi0	cp	mult
    4     1    34    35     9
    4     1    36    37     9
   34     1    36    37     9
    7     2     3    86     9
    3     2     7     6     9
    3     2     7     9     9
    4     3     2     7     9
    4     3     2    88     9
   86     3     2    88     9
    2     3     4     5     9
    3     4     1    34     9
    3     4     1    36     9
    5     4     1    34     9
    5     4     1    36     9
    1     4     3     2     9
    1     4     3    86     9
    5     4     3    86     9
    1     4     5     6     9
    1     4     5    90     9
    3     4     5     6     9
    3     4     5    90     9
    4     5     6     7     9
    4     5     6    89     9
    7     6     5    90     9
   89     6     5    90     9
    5     6     7     9     9
    6     7     2    88     9
    9     7     2    88     9
    2     7     6     5     9
    2     7     6    89     9
    9     7     6    89     9
    2     7     9     8     9
    2     7     9    10     9
    2     7     9    84     9
    6     7     9     8     9
    6     7     9    10     9
    6     7     9    84     9
    7     9    10    12     9
    7     9    10    77     9
    7     9    10    78     9
    8     9    10    12     9
    8     9    10    77     9
    8     9    10    78     9
   12    10     9    84     9
   77    10     9    84     9
   78    10     9    84     9
    9    10    12    11     9
    9    10    12    13     9
    9    10    12    85     9
   77    10    12    85     9
   78    10    12    85     9
    9    10    77    79     9
    9    10    77    80     9
    9    10    77    87     9
   12    10    77    79     9
   12    10    77    80     9
   12    10    77    87     9
   78    10    77    79     9
   78    10    77    80     9
   78    10    77    87     9
    9    10    78    81     9
    9    10    78    82     9
    9    10    78    83     9
   12    10    78    81     9
   12    10    78    82     9
   12    10    78    83     9
   77    10    78    81     9
   77    10    78    82     9
   77    10    78    83     9
   11    12    10    77     9
   11    12    10    78     9
   13    12    10    77     9
   13    12    10    78     9
   10    12    13    22     9
   10    12    13    75     9
   10    12    13    76     9
   11    12    13    22     9
   11    12    13    75     9
   11    12    13    76     9
   22    13    12    85     9
   75    13    12    85     9
   76    13    12    85     9
   12    13    22    21     9
   12    13    22    23     9
   15    18    19    20     9
   15    18    19    38     9
   33    18    19    38     9
   15    18    33    28     9
   15    18    33    32     9
   19    18    33    28     9
   19    18    33    32     9
   20    19    18    33     9
   18    19    20    24     9
   18    19    38    39     9
   18    19    38    40     9
   18    19    38    70     9
   20    19    38    39     9
   20    19    38    40     9
   20    19    38    70     9
   14    20    19    18     9
   14    20    19    38     9
   24    20    19    38     9
   14    20    24    25     9
   14    20    24    28     9
   19    20    24    25     9
   19    20    24    28     9
   17    21    22    23     9
   17    21    27    26     9
   17    21    27    29     9
   22    21    27    26     9
   22    21    27    29     9
   21    22    13    75     9
   21    22    13    76     9
   23    22    13    75     9
   23    22    13    76     9
   13    22    21    17     9
   13    22    21    27     9
   23    22    21    27     9
   13    22    23    16     9
   13    22    23    30     9
   21    22    23    30     9
   16    23    22    21     9
   16    23    30    29     9
   16    23    30    31     9
   22    23    30    29     9
   22    23    30    31     9
   20    24    25    26     9
   20    24    25    74     9
   28    24    25    74     9
   20    24    28    29     9
   20    24    28    33     9
   25    24    28    29     9
   25    24    28    33     9
   26    25    24    28     9
   24    25    26    27     9
   24    25    26    73     9
   27    26    25    74     9
   73    26    25    74     9
   25    26    27    29     9
   21    27    26    25     9
   21    27    26    73     9
   29    27    26    73     9
   21    27    29    28     9
   21    27    29    30     9
   26    27    29    28     9
   26    27    29    30     9
   24    28    29    27     9
   24    28    29    30     9
   24    28    33    32     9
   29    28    33    32     9
   27    29    28    33     9
   30    29    28    33     9
   27    29    30    31     9
   28    29    30    31     9
   23    30    29    27     9
   23    30    29    28     9
   23    30    31    32     9
   23    30    31    72     9
   29    30    31    32     9
   29    30    31    72     9
   30    31    32    33     9
   30    31    32    71     9
   33    32    31    72     9
   71    32    31    72     9
   18    33    28    24     9
   18    33    28    29     9
   18    33    32    31     9
   18    33    32    71     9
   28    33    32    31     9
   28    33    32    71     9
   35    34     1    36     9
   19    38    40    41     9
   19    38    40    68     9
   19    38    40    69     9
   39    38    40    41     9
   39    38    40    68     9
   39    38    40    69     9
   41    40    38    70     9
   68    40    38    70     9
   69    40    38    70     9
   38    40    41    42     9
   38    40    41    43     9
   38    40    41    59     9
   42    41    40    68     9
   42    41    40    69     9
   43    41    40    68     9
   43    41    40    69     9
   59    41    40    68     9
   59    41    40    69     9
   40    41    42    65     9
   40    41    42    66     9
   40    41    42    67     9
   43    41    42    65     9
   43    41    42    66     9
   43    41    42    67     9
   59    41    42    65     9
   59    41    42    66     9
   59    41    42    67     9
   40    41    43    44     9
   40    41    43    60     9
   40    41    43    61     9
   42    41    43    44     9
   42    41    43    60     9
   42    41    43    61     9
   59    41    43    60     9
   59    41    43    61     9
   40    41    59    62     9
   40    41    59    63     9
   40    41    59    64     9
   42    41    59    62     9
   42    41    59    63     9
   42    41    59    64     9
   43    41    59    62     9
   43    41    59    63     9
   43    41    59    64     9
   44    43    41    59     9
   41    43    44    45     9
   41    43    44    49     9
   45    44    43    60     9
   45    44    43    61     9
   49    44    43    60     9
   49    44    43    61     9
   43    44    45    46     9
   43    44    45    58     9
   49    44    45    58     9
   43    44    49    48     9
   43    44    49    56     9
   45    44    49    48     9
   45    44    49    56     9
   46    45    44    49     9
   44    45    46    47     9
   44    45    46    57     9
   47    46    45    58     9
   57    46    45    58     9
   45    46    47    48     9
   45    46    47    50     9
   48    47    46    57     9
   50    47    46    57     9
   46    47    48    49     9
   46    47    48    55     9
   50    47    48    55     9
   46    47    50    51     9
   46    47    50    52     9
   48    47    50    51     9
   48    47    50    52     9
   49    48    47    50     9
   47    48    49    56     9
   55    48    49    56     9
   44    49    48    47     9
   44    49    48    55     9
   47    50    51    54     9
   52    50    51    54     9
   47    50    52    53     9
   51    50    52    53     9

[ dihedrals ]
; ai	aj	ak	al	funct	q0	cq
   18    33    19    15     2
   20    24    19    14     2
   21    27    22    17     2
   23    30    22    16     2
